                         Program Version 3.0.1 -  RELEASE  -
|  1> ! uhf 6-31g nori noautostart somf(1x) hcore extremescf grid7
|  2>
|  3> %output
|  4>  print[p_kinen] 1
|  5>  print[p_density] 1
|  6>  print[p_spindensity] 1
|  7>  end
|  8>
|  9> * xyz +1 2
| 10> B          0.00000        0.00000        0.00000
| 11> H          0.00000        0.00000        1.23400
| 12> *
| 13>
| 14> %eprnmr
| 15>  gtensor 1
| 16>  ori -3
| 17>  printlevel 5
| 18>  maxiter 500
| 19>  solver cg
| 20>  end
| 21>
| 22>
| 23>                          ****END OF INPUT****

CARTESIAN COORDINATES (ANGSTROEM)
---------------------------------
  B      0.000000    0.000000    0.000000
  H      0.000000    0.000000    1.234000

 Total Charge           Charge          ....    1
 Multiplicity           Mult            ....    2
 Number of Electrons    NEL             ....    5
 Basis Dimension        Dim             ....   11

ORBITAL ENERGIES
----------------
                 SPIN UP ORBITALS
  NO   OCC          E(Eh)            E(eV)
   0   1.0000      -8.115879      -220.8443
   1   1.0000      -0.976649       -26.5760
   2   1.0000      -0.692259       -18.8373
   3   0.0000      -0.391063       -10.6414
   4   0.0000      -0.268019        -7.2932
   5   0.0000       0.020134         0.5479
   6   0.0000       0.237808         6.4711
   7   0.0000       0.265317         7.2197

                 SPIN DOWN ORBITALS
  NO   OCC          E(Eh)            E(eV)
   0   1.0000      -8.078595      -219.8297
   1   1.0000      -0.967141       -26.3172
   2   0.0000      -0.328322        -8.9341
   3   0.0000      -0.209494        -5.7006
   4   0.0000      -0.162500        -4.4219
   5   0.0000       0.018857         0.5131
   6   0.0000       0.269350         7.3294

-------
DENSITY
-------
                  0          1          2          3          4          5
      0       1.039556  -0.084604  -0.030217  -0.000000   0.000000  -0.097684
      1      -0.084604   0.239094   0.062113   0.000000  -0.000000   0.206185
      2      -0.030217   0.062113   0.016203  -0.000000   0.000000   0.053765
      3      -0.000000   0.000000  -0.000000   0.035718  -0.132943   0.000000
      4       0.000000  -0.000000   0.000000  -0.132943   0.494811  -0.000000
      5      -0.097684   0.206185   0.053765   0.000000  -0.000000   0.178411
      6      -0.007702   0.020404   0.005305  -0.000000   0.000000   0.017607
      7      -0.000000   0.000000  -0.000000   0.018038  -0.067137   0.000000
      8       0.000000  -0.000000   0.000000  -0.067137   0.249882  -0.000000
      9      -0.040604   0.090899   0.023683  -0.000000   0.000000   0.078594
     10      -0.012629   0.029738   0.007743  -0.000000   0.000000   0.025696
                   6          7          8          9         10
      0      -0.007702  -0.000000   0.000000  -0.040604  -0.012629
      1       0.020404   0.000000  -0.000000   0.090899   0.029738
      2       0.005305  -0.000000   0.000000   0.023683   0.007743
      3      -0.000000   0.018038  -0.067137  -0.000000  -0.000000
      4       0.000000  -0.067137   0.249882   0.000000   0.000000
      5       0.017607   0.000000  -0.000000   0.078594   0.025696
      6       0.001741  -0.000000   0.000000   0.007761   0.002539
      7      -0.000000   0.009109  -0.033904  -0.000000  -0.000000
      8       0.000000  -0.033904   0.126192   0.000000   0.000000
      9       0.007761  -0.000000   0.000000   0.034628   0.011323
     10       0.002539  -0.000000   0.000000   0.011323   0.003703

                  0          1          2          3          4          5
      0       1.015126  -0.026145  -0.041370   0.000000  -0.000000  -0.029463
      1      -0.026145   0.095548   0.082180  -0.000000   0.000000   0.047881
      2      -0.041370   0.082180   0.071035  -0.000000   0.000000   0.041489
      3       0.000000  -0.000000  -0.000000   0.000000  -0.000000  -0.000000
      4      -0.000000   0.000000   0.000000  -0.000000   0.000000   0.000000
      5      -0.029463   0.047881   0.041489  -0.000000   0.000000   0.024260
      6      -0.000228   0.002271   0.001946  -0.000000   0.000000   0.001132
      7       0.000000  -0.000000  -0.000000   0.000000  -0.000000  -0.000000
      8      -0.000000   0.000000   0.000000  -0.000000   0.000000   0.000000
      9      -0.054183   0.115720   0.099951  -0.000000   0.000000   0.058356
     10      -0.040570   0.087970   0.075971  -0.000000   0.000000   0.044352
                   6          7          8          9         10
      0      -0.000228   0.000000  -0.000000  -0.054183  -0.040570
      1       0.002271  -0.000000   0.000000   0.115720   0.087970
      2       0.001946  -0.000000   0.000000   0.099951   0.075971
      3      -0.000000   0.000000  -0.000000  -0.000000  -0.000000
      4       0.000000  -0.000000   0.000000   0.000000   0.000000
      5       0.001132  -0.000000   0.000000   0.058356   0.044352
      6       0.000054  -0.000000   0.000000   0.002741   0.002084
      7      -0.000000   0.000000  -0.000000  -0.000000  -0.000000
      8       0.000000  -0.000000   0.000000   0.000000   0.000000
      9       0.002741  -0.000000   0.000000   0.140655   0.106911
     10       0.002084  -0.000000   0.000000   0.106911   0.081263

MULLIKEN ATOMIC CHARGES AND SPIN POPULATIONS
--------------------------------------------
   0 B :    0.697472    1.398929
   1 H :    0.302528   -0.398929
Sum of atomic charges         :    1.0000000

LOEWDIN ATOMIC CHARGES AND SPIN POPULATIONS
-------------------------------------------
   0 B :    0.741209    1.265588
   1 H :    0.258791   -0.265588

  Mayer bond orders larger than 0.1
B(  0-B ,  1-H ) :   0.7494

FINAL SINGLE POINT ENERGY       -24.683851461631

DIPOLE MOMENT
-------------
                                X             Y             Z
Electronic contribution:     -0.00000       0.00000      -1.33207
Nuclear contribution   :      0.00000       0.00000       1.13853
                        -----------------------------------------
Total Dipole Moment    :     -0.00000       0.00000      -0.19353
                        -----------------------------------------
Magnitude (a.u.)       :      0.19353
Magnitude (Debye)      :      0.49192

                             ****ORCA TERMINATED NORMALLY****
TOTAL RUN TIME: 0 days 0 hours 0 minutes 5 seconds 686 msec
